
FAST Summary File

Predictions were generated on 24-Jan-2020 at 11:36:43 using OpenFAST, compiled as a 64-bit application using double precision at commit v2.1.0-16-g02861f05-dirty
  compiled with
    NWTC Subroutine Library
    ElastoDyn
    BeamDyn [not called]
    InflowWind
    AeroDyn14 [not called]
    AeroDyn
    ServoDyn
    HydroDyn [not called]
    SubDyn [not called]
    ExtPtfm_MCKF [not called]
    MAP [not called]
    FEAMooring [not called]
    MoorDyn [not called]
    OrcaFlexInterface [not called]
    IceFloe [not called]
    IceDyn [not called]


Modeling a land-based turbine
Description from the FAST input file: 
  AeroElasticSE FAST driver

Interpolation order for input/output time histories: 2 (quadratic)
Number of correction iterations:  0


   Requested Time Steps  
  -------------------------------------------------
  Component          Time Step (s)    Subcycles (-)
  -----------------  ---------------  -------------
  FAST (glue code)    6.250E-03
  InflowWind          6.250E-03              1
  ElastoDyn           6.250E-03              1
  AeroDyn             6.250E-03              1
  ServoDyn            6.250E-03              1
  FAST output files   6.250E-03              1


   Requested Channels in FAST Output File(s)  
  --------------------------------------------
  Number  Name        Units       Generated by
  ------  ----------  ----------  ------------
       1  Time        (s)         OpenFAST
       2  Wind1VelX   (m/s)       InflowWind
       3  Wind1VelY   (m/s)       InflowWind
       4  Wind1VelZ   (m/s)       InflowWind
       5  Azimuth     (deg)       ElastoDyn
       6  BldPitch1   (deg)       ElastoDyn
       7  BldPitch2   (deg)       ElastoDyn
       8  BldPitch3   (deg)       ElastoDyn
       9  GenSpeed    (rpm)       ElastoDyn
      10  IPDefl1     (m)         ElastoDyn
      11  LSSGagMya   (kN-m)      ElastoDyn
      12  LSSGagMza   (kN-m)      ElastoDyn
      13  LSShftPwr   (kW)        ElastoDyn
      14  LSShftTq    (kN-m)      ElastoDyn
      15  OoPDefl1    (m)         ElastoDyn
      16  RotPwr      (kW)        ElastoDyn
      17  RotSpeed    (rpm)       ElastoDyn
      18  RotThrust   (kN)        ElastoDyn
      19  RotTorq     (kN-m)      ElastoDyn
      20  Spn2MLxb1   (kN-m)      ElastoDyn
      21  Spn2MLyb1   (kN-m)      ElastoDyn
      22  TTDspFA     (m)         ElastoDyn
      23  TTDspSS     (m)         ElastoDyn
      24  TTDspTwst   (deg)       ElastoDyn
      25  TwrBsFxt    (kN)        ElastoDyn
      26  TwrBsFyt    (kN)        ElastoDyn
      27  TwrBsFzt    (kN)        ElastoDyn
      28  TwrBsMxt    (kN-m)      ElastoDyn
      29  TwrBsMyt    (kN-m)      ElastoDyn
      30  TwrBsMzt    (kN-m)      ElastoDyn
      31  TwstDefl1   (deg)       ElastoDyn
      32  YawBrFxp    (kN)        ElastoDyn
      33  YawBrFyp    (kN)        ElastoDyn
      34  YawBrFzp    (kN)        ElastoDyn
      35  YawBrMxp    (kN-m)      ElastoDyn
      36  YawBrMyp    (kN-m)      ElastoDyn
      37  YawBrMzp    (kN-m)      ElastoDyn
      38  RootFxb1    (kN)        ElastoDyn
      39  RootFyb1    (kN)        ElastoDyn
      40  RootFzb1    (kN)        ElastoDyn
      41  RootMxb1    (kN-m)      ElastoDyn
      42  RootMyb1    (kN-m)      ElastoDyn
      43  RootMzb1    (kN-m)      ElastoDyn
      44  RootFxb2    (kN)        ElastoDyn
      45  RootFyb2    (kN)        ElastoDyn
      46  RootFzb2    (kN)        ElastoDyn
      47  RootMxb2    (kN-m)      ElastoDyn
      48  RootMyb2    (kN-m)      ElastoDyn
      49  RootMzb2    (kN-m)      ElastoDyn
      50  RootFxb3    (kN)        ElastoDyn
      51  RootFyb3    (kN)        ElastoDyn
      52  RootFzb3    (kN)        ElastoDyn
      53  RootMxb3    (kN-m)      ElastoDyn
      54  RootMyb3    (kN-m)      ElastoDyn
      55  RootMzb3    (kN-m)      ElastoDyn
      56  RtArea      (m^2)       AeroDyn
      57  RtSpeed     (rpm)       AeroDyn
      58  RtTSR       (-)         AeroDyn
      59  RtVAvgxh    (m/s)       AeroDyn
      60  RtVAvgyh    (m/s)       AeroDyn
      61  RtVAvgzh    (m/s)       AeroDyn
      62  B1N1Vindx   (m/s)       AeroDyn
      63  B1N1Vindy   (m/s)       AeroDyn
      64  B1N1AxInd   (-)         AeroDyn
      65  B1N1TnInd   (-)         AeroDyn
      66  B1N1Alpha   (deg)       AeroDyn
      67  B1N2Alpha   (deg)       AeroDyn
      68  B1N3Alpha   (deg)       AeroDyn
      69  B1N4Alpha   (deg)       AeroDyn
      70  B1N5Alpha   (deg)       AeroDyn
      71  B1N6Alpha   (deg)       AeroDyn
      72  B1N7Alpha   (deg)       AeroDyn
      73  B1N8Alpha   (deg)       AeroDyn
      74  B1N9Alpha   (deg)       AeroDyn
      75  B1N1Cl      (-)         AeroDyn
      76  B1N2Cl      (-)         AeroDyn
      77  B1N3Cl      (-)         AeroDyn
      78  B1N4Cl      (-)         AeroDyn
      79  B1N5Cl      (-)         AeroDyn
      80  B1N6Cl      (-)         AeroDyn
      81  B1N7Cl      (-)         AeroDyn
      82  B1N8Cl      (-)         AeroDyn
      83  B1N9Cl      (-)         AeroDyn
      84  B1N1Cd      (-)         AeroDyn
      85  B1N2Cd      (-)         AeroDyn
      86  B1N3Cd      (-)         AeroDyn
      87  B1N4Cd      (-)         AeroDyn
      88  B1N5Cd      (-)         AeroDyn
      89  B1N6Cd      (-)         AeroDyn
      90  B1N7Cd      (-)         AeroDyn
      91  B1N8Cd      (-)         AeroDyn
      92  B1N9Cd      (-)         AeroDyn
      93  B1N1Fl      (N/m)       AeroDyn
      94  B1N2Fl      (N/m)       AeroDyn
      95  B1N3Fl      (N/m)       AeroDyn
      96  B1N4Fl      (N/m)       AeroDyn
      97  B1N5Fl      (N/m)       AeroDyn
      98  B1N6Fl      (N/m)       AeroDyn
      99  B1N7Fl      (N/m)       AeroDyn
     100  B1N8Fl      (N/m)       AeroDyn
     101  B1N9Fl      (N/m)       AeroDyn
     102  B1N1Fd      (N/m)       AeroDyn
     103  B1N2Fd      (N/m)       AeroDyn
     104  B1N3Fd      (N/m)       AeroDyn
     105  B1N4Fd      (N/m)       AeroDyn
     106  B1N5Fd      (N/m)       AeroDyn
     107  B1N6Fd      (N/m)       AeroDyn
     108  B1N7Fd      (N/m)       AeroDyn
     109  B1N8Fd      (N/m)       AeroDyn
     110  B1N9Fd      (N/m)       AeroDyn
     111  BLFLAP1     (deg)       ServoDyn
     112  BLFLAP2     (deg)       ServoDyn
     113  BLFLAP3     (deg)       ServoDyn
     114  GenPwr      (kW)        ServoDyn
     115  GenTq       (kN-m)      ServoDyn
